 Gaussian 09, Revision B.01,
 Gaussian 09:  EM64M-G09RevB.01 12-Aug-2010

 ------------------------------------------
 #hf sto-3g opt=(tight,z-matrix) freq nosym
 ------------------------------------------

 99/9=1/99;

 Symbolic Z-matrix:
 Charge =  0 Multiplicity = 1

 SCF Done:  E(RHF) =  -74.9656570251     A.U. after    7 cycles
 SCF Done:  E(RHF) =  -74.9658683827     A.U. after    6 cycles
 SCF Done:  E(RHF) =  -74.9658967781     A.U. after    6 cycles
 SCF Done:  E(RHF) =  -74.9659009514     A.U. after    6 cycles
 SCF Done:  E(RHF) =  -74.9659012171     A.U. after    6 cycles
 Optimization completed.
    -- Stationary point found.
 Normal termination of Gaussian 09 at Sun Apr  7 21:37:19 2019.

 ---------------------------------------------------------------
 #N Geom=AllCheck Guess=TCheck SCRF=Check GenChk RHF/STO-3G Freq
 ---------------------------------------------------------------

 Z-Matrix taken from the checkpoint file:
 h2o_freq.chk
 Charge =  0 Multiplicity = 1

                          Input orientation:
 ---------------------------------------------------------------------
 Center     Atomic      Atomic             Coordinates (Angstroms)
 Number     Number       Type             X           Y           Z
 ---------------------------------------------------------------------
      1          8           0        0.000000    0.000000    0.000000
      2          1           0        0.758083    0.000000    0.635799
      3          1           0       -0.758083    0.000000    0.635799
 ---------------------------------------------------------------------

 SCF Done:  E(RHF) =  -74.9659012171     A.U. after    1 cycles

 Alpha  occ. eigenvalues --  -20.25158  -1.25755  -0.59386  -0.45973  -0.39262
 Alpha virt. eigenvalues --    0.58179   0.69268

 Mulliken atomic charges:
              1
     1  O   -0.330531
     2  H    0.165265
     3  H    0.165265
 Sum of Mulliken atomic charges =   0.00000

 Dipole moment (field-independent basis, Debye):
    X=              0.0000    Y=              0.0000    Z=              1.7092  Tot=              1.7092
 Quadrupole moment (field-independent basis, Debye-Ang):
   XX=             -4.4856   YY=             -6.1257   ZZ=             -4.8986
   XY=              0.0000   XZ=              0.0000   YZ=              0.0000

  Exact polarizability:   5.508   0.000   0.040   0.000   0.000   2.566
 Approx polarizability:   3.938   0.000   0.020   0.000   0.000   2.607

                     1                      2                      3
                     A                      A                      A
 Frequencies --  2170.0398              4140.0038              4391.0734
 Red. masses --     1.0785                 1.0491                 1.0774
 Frc consts  --     2.9923                10.5942                12.2392
 IR Inten    --     7.2378                44.2864                29.9713
 Raman Activ --     9.2669                47.8201                21.5548

 - Thermochemistry -
 -------------------
 Temperature   298.150 Kelvin.  Pressure   1.00000 Atm.
 Atom     1 has atomic number  8 and mass  15.99491

 Molecular mass:    18.01056 amu.
 Principal axes and moments of inertia in atomic units:
                           1         2         3
     Eigenvalues --     2.58409   4.13663   6.72071
           X            1.00000   0.00000   0.00000
           Y            0.00000   0.00000   1.00000
           Z            0.00000   1.00000   0.00000
 This molecule is an asymmetric top.
 Rotational symmetry number  2.
 Rotational temperatures (Kelvin)     33.51816    20.93827    12.88759
 Rotational constants (GHZ):         698.40602   436.28337   268.53422
 Zero-point vibrational energy      64006.9 (Joules/Mol)
                                   15.29801 (Kcal/Mol)
 Vibrational temperatures:   3122.20  5956.53  6317.77
          (Kelvin)

 Zero-point correction=                           0.024379 (Hartree/Particle)
 Thermal correction to Energy=                    0.027212
 Thermal correction to Enthalpy=                  0.028156
 Thermal correction to Gibbs Free Energy=         0.006641
 Sum of electronic and zero-point Energies=            -74.941522
 Sum of electronic and thermal Energies=               -74.938689
 Sum of electronic and thermal Enthalpies=             -74.937745
 Sum of electronic and thermal Free Energies=          -74.959260

                     E (Thermal)             CV                S
                      KCal/Mol        Cal/Mol-Kelvin    Cal/Mol-Kelvin
 Total                   17.076              5.968             45.282
 Electronic               0.000              0.000              0.000
 Translational            0.889              2.981             34.608
 Rotational               0.889              2.981             10.673
 Vibrational             15.298              0.006              0.001

 Optimization completed.
    -- Stationary point found.
 Normal termination of Gaussian 09 at Sun Apr  7 21:37:20 2019.
